ITEM: TIMESTEP
50000
ITEM: NUMBER OF ATOMS
99
ITEM: BOX BOUNDS pp pp pp
-5.0000000000000000e+00 1.0000000000000000e+01
-5.0000000000000000e+00 1.0000000000000000e+01
-5.0000000000000000e+00 1.0000000000000000e+01
ITEM: ATOMS id type xs ys zs
25 1 0.17042 0.466777 0.377634
26 2 0.1053 0.459667 0.390013
27 2 0.204331 0.464381 0.434982
2 2 0.131528 0.492364 0.256342
98 2 0.350306 0.442235 0.469532
53 2 0.965176 0.384673 0.352848
52 1 0.982884 0.441557 0.382766
54 2 0.970529 0.492867 0.342035
57 2 0.967754 0.485245 0.0535293
18 2 0.97251 0.497211 0.489077
14 2 0.225383 0.653322 0.188477
1 1 0.104847 0.53105 0.209056
13 1 0.260692 0.642306 0.133012
15 2 0.254715 0.57834 0.115203
3 2 0.0684435 0.579078 0.237562
45 2 0.282983 0.710948 0.0454502
56 2 0.0632492 0.52625 0.0859472
83 2 0.049293 0.737545 0.129987
37 1 0.0691198 0.715409 0.00593611
82 1 0.0130272 0.750573 0.184388
55 1 0.0204503 0.521655 0.0350396
93 2 0.985194 0.681001 0.294309
84 2 0.954563 0.777022 0.166311
91 1 0.96158 0.62261 0.316158
92 2 0.901006 0.631597 0.342512
4 1 0.803899 0.630397 0.41972
5 2 0.763645 0.683458 0.416792
6 2 0.818208 0.616848 0.483408
79 1 0.708458 0.777837 0.494894
80 2 0.646764 0.799949 0.482673
76 1 0.343012 0.271628 0.602269
77 2 0.395727 0.30421 0.626847
78 2 0.363834 0.22372 0.560847
62 2 0.478079 0.239923 0.749305
61 1 0.486795 0.181345 0.779917
63 2 0.447024 0.178045 0.833319
51 2 0.469792 0.417936 0.68254
49 1 0.484651 0.353266 0.676103
19 1 0.179913 0.344331 0.663294
21 2 0.221217 0.390002 0.688839
20 2 0.215021 0.29963 0.628456
74 2 0.0666345 0.353699 0.624071
73 1 0.00181552 0.363918 0.612301
97 1 0.293059 0.432301 0.50222
99 2 0.29489 0.37306 0.532742
75 2 0.991522 0.428461 0.599161
42 2 0.885779 0.319425 0.631154
50 2 0.547029 0.346947 0.653441
41 2 0.877033 0.230021 0.692654
40 1 0.843042 0.277013 0.659776
48 2 0.744269 0.346785 0.634362
46 1 0.687198 0.380416 0.641861
47 2 0.689834 0.436835 0.606444
12 2 0.782872 0.12369 0.60574
95 2 0.517337 0.0601651 0.70919
11 2 0.702613 0.190931 0.635551
10 1 0.719858 0.127072 0.627238
96 2 0.623242 0.0558434 0.684348
94 1 0.566836 0.0205587 0.688557
38 2 0.0547883 0.654007 0.984284
39 2 0.127549 0.734894 0.980424
17 2 0.00323702 0.584087 0.547043
24 2 0.408111 0.544355 0.767367
22 1 0.446402 0.528372 0.715186
23 2 0.468389 0.584065 0.685872
35 2 0.373569 0.686848 0.850718
34 1 0.344233 0.629025 0.835217
44 2 0.360316 0.74774 0.978237
43 1 0.295081 0.735618 0.984709
36 2 0.294062 0.617504 0.87758
65 2 0.302063 0.790409 0.8654
64 1 0.287021 0.826665 0.811515
66 2 0.250271 0.879245 0.82966
7 1 0.351402 0.820065 0.623302
9 2 0.339066 0.833046 0.687519
60 2 0.469387 0.710401 0.593539
8 2 0.296054 0.830211 0.587551
70 1 0.468033 0.77075 0.918459
32 2 0.445559 0.883036 0.563468
81 2 0.743514 0.825569 0.525506
68 2 0.798652 0.538989 0.679773
16 1 0.962106 0.531653 0.545201
58 1 0.522825 0.682446 0.621952
28 1 0.642276 0.562608 0.78783
29 2 0.63548 0.56081 0.854125
87 2 0.635479 0.80989 0.764343
72 2 0.501655 0.801273 0.86965
85 1 0.588502 0.847985 0.792385
71 2 0.511026 0.746604 0.963326
86 2 0.582581 0.904832 0.758067
69 2 0.865471 0.558291 0.596021
30 2 0.582624 0.554623 0.759153
67 1 0.804368 0.568914 0.620474
59 2 0.574225 0.724806 0.619098
89 2 0.729912 0.691228 0.666837
88 1 0.684219 0.716899 0.708038
90 2 0.66439 0.67009 0.751168
33 2 0.530772 0.941106 0.598371
31 1 0.503513 0.910752 0.545646
ITEM: TIMESTEP
60000
ITEM: NUMBER OF ATOMS
99
ITEM: BOX BOUNDS pp pp pp
-5.0000000000000000e+00 1.0000000000000000e+01
-5.0000000000000000e+00 1.0000000000000000e+01
-5.0000000000000000e+00 1.0000000000000000e+01
ITEM: ATOMS id type xs ys zs
98 2 0.191434 0.40734 0.391835
97 1 0.220235 0.426313 0.334783
99 2 0.280625 0.398475 0.330046
76 1 0.403306 0.392177 0.339215
77 2 0.426305 0.443804 0.374571
78 2 0.452476 0.348211 0.329532
59 2 0.543421 0.406395 0.444476
60 2 0.638656 0.354192 0.45202
58 1 0.575212 0.3491 0.432186
5 2 0.76691 0.492849 0.41113
61 1 0.592114 0.20371 0.540539
63 2 0.572815 0.24839 0.494979
46 1 0.764192 0.377036 0.43785
47 2 0.760113 0.381074 0.504269
12 2 0.691499 0.154453 0.614107
11 2 0.794779 0.169716 0.64496
10 1 0.74419 0.126315 0.643711
52 1 1.00073 0.597887 0.186243
54 2 0.0604754 0.568457 0.183291
39 2 0.198463 0.490976 0.248059
14 2 0.170381 0.649814 0.142351
13 1 0.167442 0.700186 0.0987793
37 1 0.205304 0.536174 0.199533
82 1 0.131045 0.718093 0.416114
38 2 0.270071 0.545288 0.186625
83 2 0.121659 0.761465 0.465865
26 2 0.226252 0.643123 0.411771
33 2 0.50494 0.608297 0.387846
84 2 0.0719671 0.699097 0.391753
32 2 0.400239 0.586723 0.408436
31 1 0.461895 0.56138 0.407605
15 2 0.122969 0.745183 0.1198
25 1 0.281742 0.607224 0.403021
18 2 0.970792 0.63075 0.480437
35 2 0.0516789 0.62469 0.999216
53 2 0.974342 0.600786 0.125089
93 2 0.984174 0.628173 0.304477
91 1 0.971872 0.64096 0.368738
34 1 0.987635 0.609735 0.0101294
4 1 0.785428 0.555525 0.424292
6 2 0.736235 0.597238 0.407426
79 1 0.628726 0.666055 0.439722
92 2 0.91892 0.6057 0.388669
80 2 0.653667 0.727478 0.432677
57 2 0.280283 0.593165 0.519726
56 2 0.263148 0.652165 0.609598
55 1 0.283597 0.593141 0.58631
74 2 0.049057 0.465187 0.682324
48 2 0.82823 0.373238 0.419709
62 2 0.545274 0.156685 0.546778
42 2 0.876604 0.383562 0.639766
41 2 0.799919 0.460033 0.628661
40 1 0.815915 0.396668 0.615487
96 2 0.685094 0.0185423 0.634424
20 2 0.946754 0.500061 0.777515
50 2 0.591644 0.596171 0.617608
73 1 0.987921 0.466403 0.655766
2 2 0.0427095 0.789942 0.699422
1 1 0.0508413 0.732718 0.666198
3 2 0.107738 0.703765 0.685405
8 2 0.175786 0.570494 0.767474
17 2 0.979658 0.688186 0.572493
45 2 0.17806 0.724046 0.99046
27 2 0.268506 0.555103 0.363619
44 2 0.267833 0.745956 0.932905
43 1 0.201453 0.74039 0.93021
65 2 0.211696 0.735294 0.810652
64 1 0.223127 0.708693 0.7506
66 2 0.287526 0.715962 0.73497
7 1 0.154415 0.508383 0.75607
9 2 0.196856 0.464895 0.783492
70 1 0.402871 0.719832 0.698392
72 2 0.449157 0.767771 0.700346
71 2 0.428784 0.665043 0.670622
85 1 0.480694 0.56104 0.61056
87 2 0.421121 0.531204 0.608277
16 1 0.958118 0.630979 0.545887
86 2 0.492596 0.591379 0.552403
21 2 0.966199 0.46024 0.876953
49 1 0.640478 0.641548 0.616782
51 2 0.628935 0.68747 0.663711
36 2 0.956356 0.602035 0.951762
95 2 0.620753 0.985206 0.55318
81 2 0.640903 0.644076 0.501472
19 1 0.952193 0.515364 0.842173
75 2 0.981243 0.520832 0.617854
24 2 0.628111 0.798583 0.736673
69 2 0.835098 0.57808 0.862171
22 1 0.572713 0.814131 0.703001
29 2 0.74612 0.586316 0.630607
94 1 0.635069 0.977708 0.617858
23 2 0.583374 0.86913 0.666864
68 2 0.783612 0.584217 0.766446
28 1 0.804538 0.558665 0.646955
30 2 0.850999 0.577189 0.602878
67 1 0.781058 0.601348 0.830824
89 2 0.781833 0.785692 0.808381
88 1 0.728075 0.754191 0.784672
90 2 0.726345 0.69203 0.808702
ITEM: TIMESTEP
70000
ITEM: NUMBER OF ATOMS
99
ITEM: BOX BOUNDS pp pp pp
-5.0000000000000000e+00 1.0000000000000000e+01
-5.0000000000000000e+00 1.0000000000000000e+01
-5.0000000000000000e+00 1.0000000000000000e+01
ITEM: ATOMS id type xs ys zs
98 2 0.345579 0.45444 0.192184
74 2 0.189793 0.502947 0.522055
29 2 0.788349 0.432069 0.373979
28 1 0.771568 0.405268 0.43267
30 2 0.815424 0.424292 0.479137
48 2 0.670197 0.34632 0.509937
97 1 0.33662 0.520473 0.194125
75 2 0.229478 0.537279 0.426671
99 2 0.378782 0.547332 0.238231
39 2 0.200499 0.554373 0.209223
38 2 0.117614 0.585364 0.145809
37 1 0.136088 0.571545 0.208357
76 1 0.472832 0.624275 0.275747
77 2 0.461508 0.653736 0.334469
14 2 0.383581 0.705778 0.205474
13 1 0.320914 0.727708 0.211512
82 1 0.169342 0.642937 0.3699
83 2 0.196551 0.703797 0.370434
84 2 0.146463 0.629361 0.308772
32 2 0.444646 0.629156 0.486236
15 2 0.303533 0.727871 0.275872
25 1 0.298802 0.796753 0.38038
45 2 0.282098 0.687481 0.101296
43 1 0.267942 0.637971 0.0589543
44 2 0.291 0.580446 0.083522
92 2 0.0293381 0.547086 0.296677
34 1 0.0428046 0.635558 0.0499997
26 2 0.331857 0.814285 0.435556
36 2 0.103272 0.66294 0.0438065
31 1 0.496216 0.663772 0.462013
73 1 0.245094 0.51013 0.485523
27 2 0.315597 0.837644 0.330477
54 2 0.851627 0.625109 0.117784
60 2 0.730608 0.58208 0.294035
78 2 0.535467 0.601509 0.274021
58 1 0.665255 0.587562 0.306007
59 2 0.654721 0.636806 0.349693
52 1 0.894352 0.638843 0.167083
53 2 0.956572 0.626263 0.146714
93 2 0.933346 0.590215 0.268803
91 1 0.96813 0.562239 0.318319
33 2 0.552945 0.640131 0.487848
17 2 0.915722 0.544274 0.423732
12 2 0.53067 0.0258349 0.603746
11 2 0.498517 0.0458064 0.501673
10 1 0.508546 -0.00179856 0.547254
63 2 0.537867 0.270764 0.59496
46 1 0.614669 0.342641 0.546646
61 1 0.491526 0.229846 0.619916
62 2 0.469317 0.25415 0.677886
47 2 0.592435 0.404156 0.559531
9 2 0.10343 0.606481 0.492669
85 1 0.38491 0.56299 0.583322
87 2 0.344483 0.520708 0.551347
65 2 0.334365 0.501735 0.762459
64 1 0.319799 0.526262 0.822715
66 2 0.376279 0.539907 0.8554
7 1 0.0829845 0.579067 0.549896
57 2 0.156618 0.662153 0.775045
56 2 0.195593 0.701485 0.681313
55 1 0.140847 0.680175 0.712828
2 2 0.230671 0.576559 0.857759
1 1 0.186336 0.621459 0.879273
3 2 0.203077 0.641608 0.940577
8 2 0.110389 0.611663 0.601189
70 1 0.30628 0.740547 0.633199
72 2 0.332795 0.779263 0.680553
71 2 0.325787 0.762242 0.573255
86 2 0.349042 0.613132 0.608694
21 2 0.059147 0.598201 0.878415
23 2 0.484033 0.64521 0.868716
96 2 0.450339 0.797271 0.525269
95 2 0.443192 0.905901 0.524883
94 1 0.408613 0.84906 0.52066
22 1 0.495124 0.586151 0.839847
35 2 0.0187393 0.620933 0.989573
20 2 0.972833 0.621326 0.816231
19 1 0.993124 0.591346 0.872212
79 1 0.744212 0.626108 0.539266
81 2 0.687794 0.606487 0.568871
80 2 0.784927 0.5738 0.532149
16 1 0.898601 0.532395 0.487058
50 2 0.50932 0.557923 0.602936
49 1 0.575282 0.561782 0.611801
18 2 0.9498 0.547269 0.527083
5 2 0.883099 0.792368 0.556601
4 1 0.88818 0.727357 0.570461
6 2 0.833052 0.69591 0.550052
51 2 0.588891 0.563164 0.677049
89 2 0.707646 0.530454 0.801567
88 1 0.643341 0.524326 0.78508
90 2 0.628544 0.459837 0.776914
42 2 0.0329031 0.674233 0.711093
68 2 0.846596 0.566584 0.753107
41 2 0.941526 0.688559 0.653676
40 1 0.968107 0.659037 0.707214
24 2 0.556016 0.585769 0.812707
69 2 0.882781 0.498981 0.830387
67 1 0.829446 0.517657 0.795017
ITEM: TIMESTEP
80000
ITEM: NUMBER OF ATOMS
99
ITEM: BOX BOUNDS pp pp pp
-5.0000000000000000e+00 1.0000000000000000e+01
-5.0000000000000000e+00 1.0000000000000000e+01
-5.0000000000000000e+00 1.0000000000000000e+01
ITEM: ATOMS id type xs ys zs
9 2 0.0335535 0.427214 0.488378
8 2 0.141926 0.437316 0.486157
53 2 0.0796663 0.503729 0.152522
7 1 0.0843322 0.464138 0.46596
32 2 0.59025 0.617287 0.395608
73 1 0.233774 0.672673 0.540607
84 2 0.153657 0.547424 0.386354
93 2 0.0553435 0.581056 0.305054
15 2 0.447634 0.572474 1.00727
82 1 0.182864 0.570177 0.330913
83 2 0.243948 0.592519 0.345541
25 1 0.353208 0.616388 0.355539
44 2 0.193308 0.532541 0.0687933
26 2 0.375671 0.651335 0.303399
27 2 0.403441 0.581714 0.382351
54 2 0.157099 0.520976 0.227077
52 1 0.144598 0.497102 0.1661
91 1 0.997059 0.610768 0.292222
74 2 0.269464 0.666942 0.484591
13 1 0.390405 0.559319 0.038837
45 2 0.282713 0.546979 0.00837896
38 2 -0.00240562 0.540759 0.0515005
36 2 0.105444 0.535933 0.977219
34 1 0.045407 0.529955 0.948858
37 1 0.969039 0.538856 0.111712
39 2 0.903096 0.531887 0.104821
92 2 0.984027 0.606875 0.226958
76 1 0.493869 0.628533 0.210755
77 2 0.50907 0.572694 0.243853
16 1 0.886688 0.709118 0.402762
59 2 0.646914 0.74989 0.326162
17 2 0.903523 0.670249 0.351281
60 2 0.683677 0.744596 0.223829
78 2 0.537183 0.676517 0.227059
58 1 0.629067 0.746889 0.261999
18 2 0.929879 0.759682 0.407485
31 1 0.545158 0.568237 0.39332
33 2 0.550813 0.530294 0.447843
29 2 0.771626 0.700985 0.405782
28 1 0.705812 0.697374 0.415783
30 2 0.693518 0.692075 0.481091
98 2 0.293196 0.470006 0.606626
97 1 0.270598 0.444085 0.549513
99 2 0.296479 0.477692 0.498081
48 2 0.393571 0.442188 0.729981
61 1 0.34501 0.2273 0.700869
63 2 0.283475 0.2173 0.724491
12 2 0.379637 0.113006 0.712404
62 2 0.360315 0.292026 0.705429
46 1 0.405304 0.388299 0.767435
47 2 0.366702 0.390162 0.821758
64 1 0.230868 0.45908 0.834767
50 2 0.51911 0.464658 0.80413
51 2 0.550975 0.460647 0.90815
49 1 0.568925 0.478072 0.846355
11 2 0.457382 0.036866 0.709217
10 1 0.391824 0.0475134 0.714985
14 2 0.392431 0.585214 0.100236
66 2 0.177034 0.42386 0.817276
75 2 0.273426 0.692867 0.59025
43 1 0.21661 0.538509 0.00661747
2 2 0.215104 0.778147 0.76032
3 2 0.135536 0.825101 0.817904
1 1 0.162279 0.766903 0.799404
65 2 0.218653 0.491535 0.891704
57 2 0.3088 0.523374 0.762026
56 2 0.349442 0.611181 0.712127
55 1 0.345258 0.544667 0.710433
70 1 0.347685 0.736695 0.669736
72 2 0.323638 0.798874 0.669635
71 2 0.412822 0.738085 0.683869
96 2 0.335327 0.95155 0.680233
94 1 0.287199 0.908819 0.662848
6 2 0.118384 0.644688 0.566477
95 2 0.260023 0.928233 0.605151
21 2 0.0753981 0.684569 0.797709
4 1 0.0668897 0.604826 0.580752
19 1 0.0430723 0.627243 0.787064
20 2 0.0690756 0.596617 0.733863
5 2 0.0736161 0.547208 0.547898
35 2 0.0483593 0.551492 0.885835
85 1 0.601047 0.484596 0.565277
86 2 0.581504 0.452761 0.620495
87 2 0.646329 0.530876 0.581157
68 2 0.856924 0.64059 0.690866
67 1 0.856243 0.658605 0.755049
23 2 0.564812 0.685572 0.724435
22 1 0.519251 0.731374 0.707981
69 2 0.918408 0.657477 0.779105
42 2 0.93465 0.598823 0.581227
79 1 0.689449 0.643577 0.589403
81 2 0.754807 0.650227 0.578062
80 2 0.677906 0.646156 0.655012
40 1 0.877637 0.630383 0.567161
90 2 0.663271 0.633874 0.833095
89 2 0.742986 0.673615 0.770503
88 1 0.67973 0.65258 0.771259
41 2 0.881678 0.657548 0.506414
24 2 0.549135 0.782361 0.677131
ITEM: TIMESTEP
90000
ITEM: NUMBER OF ATOMS
99
ITEM: BOX BOUNDS pp pp pp
-5.0000000000000000e+00 1.0000000000000000e+01
-5.0000000000000000e+00 1.0000000000000000e+01
-5.0000000000000000e+00 1.0000000000000000e+01
ITEM: ATOMS id type xs ys zs
9 2 -0.00784722 0.463281 0.491985
7 1 0.0547705 0.463823 0.469112
60 2 0.896679 0.366468 0.210718
78 2 0.676712 0.463104 0.116942
58 1 0.913391 0.419538 0.173993
59 2 0.946684 0.463163 0.211846
8 2 0.0969902 0.453616 0.519686
84 2 0.435544 0.867748 0.147371
93 2 0.0628636 0.495947 0.34553
82 1 0.422692 0.805455 0.127402
83 2 0.479319 0.776305 0.107703
92 2 0.0927956 0.550667 0.256303
91 1 0.0427708 0.539055 0.298813
37 1 0.168371 0.583591 0.181844
38 2 0.232737 0.578132 0.165362
52 1 0.306926 0.665788 0.0529006
53 2 0.33753 0.623321 0.0116158
26 2 0.60894 0.660228 0.0914961
25 1 0.583249 0.70623 0.13234
54 2 0.351556 0.708553 0.0778765
39 2 0.148276 0.646455 0.172425
35 2 0.925184 0.373589 0.981486
34 1 0.964531 0.424805 -0.00198563
27 2 0.586176 0.684247 0.19521
77 2 0.625176 0.537032 0.0558664
33 2 0.601063 0.55585 0.233062
76 1 0.647761 0.523156 0.117037
31 1 0.581636 0.59291 0.284962
80 2 0.491131 0.5945 0.406178
36 2 0.966193 0.431038 0.0643683
32 2 0.623745 0.583728 0.335824
16 1 0.896262 0.615639 0.374803
17 2 0.956699 0.594613 0.356102
18 2 0.855013 0.614088 0.322454
29 2 0.651217 0.539888 0.48518
28 1 0.682699 0.530931 0.427102
30 2 0.748545 0.535164 0.436635
41 2 0.8766 0.605932 0.486182
79 1 0.500706 0.55323 0.457652
81 2 0.547478 0.508441 0.44182
61 1 0.107826 0.305631 0.811077
63 2 0.143483 0.345898 0.850467
12 2 0.111258 0.183256 0.812844
62 2 0.0768103 0.341867 0.764501
11 2 0.183702 0.114386 0.76971
10 1 0.131015 0.119638 0.810219
87 2 0.259208 0.432552 0.802689
96 2 0.129458 0.0145199 0.858376
97 1 0.157881 0.463675 0.637203
99 2 0.11051 0.508457 0.651166
64 1 0.115516 0.479516 0.921928
65 2 0.0547519 0.457401 0.938147
98 2 0.216883 0.494391 0.632768
95 2 0.103623 0.95447 0.945428
89 2 0.756482 0.536568 0.577348
88 1 0.709632 0.524417 0.623194
66 2 0.127613 0.536733 0.953933
85 1 0.281374 0.481283 0.842418
86 2 0.232883 0.499538 0.884368
44 2 0.165757 0.693587 0.900267
45 2 0.200149 0.658063 0.997256
46 1 0.425885 0.560603 0.924671
47 2 0.381855 0.51377 0.906993
48 2 0.438362 0.600195 0.872505
57 2 0.466018 0.628531 0.723631
43 1 0.158126 0.646476 0.946816
74 2 0.234859 0.642536 0.655984
73 1 0.184675 0.680357 0.633722
75 2 0.205568 0.716764 0.58193
2 2 0.171062 0.846281 0.842353
3 2 0.172615 0.777405 0.75806
1 1 0.151845 0.786195 0.820795
70 1 0.308947 0.57051 0.683774
72 2 0.371739 0.586891 0.668499
71 2 0.305541 0.553043 0.748022
94 1 0.142457 0.958062 0.89136
4 1 0.0297728 0.59394 0.64998
5 2 0.0793658 0.637329 0.639864
21 2 0.010316 0.696107 0.836892
24 2 0.478009 0.564612 0.56804
22 1 0.490015 0.568715 0.633488
55 1 0.474452 0.660269 0.781648
6 2 -0.000160516 0.607534 0.707977
20 2 0.000963926 0.59041 0.861229
56 2 0.534839 0.688483 0.782968
51 2 0.656425 0.785161 0.821764
13 1 0.614453 0.575112 0.943027
14 2 0.548852 0.564047 0.938728
19 1 0.98521 0.637666 0.816922
15 2 0.631181 0.625491 0.902697
50 2 0.708447 0.69846 0.781412
49 1 0.650459 0.720763 0.805586
68 2 0.828648 0.660975 0.658678
67 1 0.817468 0.639587 0.720823
23 2 0.552003 0.547654 0.646073
69 2 0.875386 0.635073 0.753527
42 2 0.929846 0.594168 0.580406
40 1 0.870117 0.591408 0.550923
90 2 0.730225 0.546855 0.682497
ITEM: TIMESTEP
100000
ITEM: NUMBER OF ATOMS
99
ITEM: BOX BOUNDS pp pp pp
-5.0000000000000000e+00 1.0000000000000000e+01
-5.0000000000000000e+00 1.0000000000000000e+01
-5.0000000000000000e+00 1.0000000000000000e+01
ITEM: ATOMS id type xs ys zs
81 2 0.38376 0.667189 0.316251
92 2 0.898619 0.593556 0.288529
93 2 0.80672 0.618643 0.235833
26 2 0.42202 0.706251 0.103701
25 1 0.388135 0.64885 0.102504
27 2 0.389332 0.621073 0.163097
79 1 0.400974 0.6144 0.279352
53 2 0.201734 0.71835 0.00429974
23 2 0.407207 0.542269 0.525287
83 2 0.472439 0.751948 0.961159
82 1 0.488816 0.804433 -0.00113725
58 1 0.958113 0.525893 0.0591106
59 2 0.967607 0.569554 0.108588
80 2 0.465417 0.60046 0.289212
33 2 0.60815 0.597397 0.344855
60 2 0.914318 0.479518 0.0784964
91 1 0.872886 0.626746 0.236753
31 1 0.577989 0.610563 0.286877
77 2 0.697568 0.480751 0.102807
76 1 0.680149 0.498687 0.164608
32 2 0.615122 0.587165 0.236696
28 1 0.681369 0.587513 0.460213
30 2 0.727514 0.633615 0.446439
78 2 0.625711 0.464905 0.183038
16 1 0.970318 0.567611 0.423806
17 2 0.925863 0.520135 0.438441
84 2 0.545784 0.830911 0.976549
12 2 0.172662 0.0540101 0.764098
7 1 0.10488 0.425931 0.652951
9 2 0.0979735 0.423663 0.586682
61 1 0.263317 0.214955 0.827818
63 2 0.218583 0.263532 0.818676
62 2 0.301017 0.229172 0.880931
11 2 0.266782 0.100351 0.79318
10 1 0.238787 0.045943 0.766713
97 1 0.196833 0.386055 0.821339
98 2 0.178888 0.434488 0.863489
99 2 0.171025 0.398324 0.761108
6 2 0.994729 0.39017 0.738342
8 2 0.142905 0.478112 0.669557
5 2 0.0152552 0.433796 0.835949
87 2 0.290418 0.47009 0.875626
64 1 0.122206 0.4947 0.952165
34 1 0.860142 0.536963 0.90735
35 2 0.900428 0.550147 0.958804
36 2 0.893476 0.501973 0.861426
14 2 0.75941 0.48523 0.953072
4 1 0.967349 0.411736 0.795172
22 1 0.373214 0.584616 0.56396
37 1 0.22836 0.549166 0.672657
39 2 0.274792 0.53819 0.626095
24 2 0.414725 0.630844 0.588133
86 2 0.29074 0.533859 0.787393
38 2 0.218474 0.614775 0.679148
66 2 0.166469 0.540509 0.971831
65 2 0.0641102 0.505202 0.983133
85 1 0.321084 0.520946 0.845332
54 2 0.274905 0.637745 0.00491708
52 1 0.21214 0.654167 0.989579
96 2 0.27144 0.934447 0.736294
95 2 0.34924 0.864568 0.706034
44 2 0.197577 0.797514 0.790444
45 2 0.188204 0.711954 0.857102
43 1 0.156949 0.748936 0.811277
74 2 0.2251 0.761703 0.615142
73 1 0.175538 0.722224 0.635865
75 2 0.147704 0.748336 0.690526
2 2 0.0763583 0.651008 0.594882
70 1 0.465751 0.825514 0.725471
72 2 0.459 0.768451 0.691667
71 2 0.507236 0.816153 0.776811
94 1 0.285666 0.870254 0.725284
46 1 0.447362 0.625201 0.920032
47 2 0.434664 0.609443 0.983553
48 2 0.407745 0.589582 0.879955
21 2 0.983553 0.825113 0.749379
29 2 0.687222 0.568535 0.523852
55 1 0.520934 0.656981 0.623446
56 2 0.566537 0.672927 0.577505
20 2 0.03031 0.736657 0.792287
18 2 0.996111 0.59205 0.480214
42 2 0.905253 0.485367 0.715382
57 2 0.550403 0.651311 0.682976
3 2 0.978128 0.691396 0.618784
1 1 0.0106848 0.642642 0.587043
19 1 0.97681 0.759612 0.759801
41 2 0.920193 0.574662 0.654927
89 2 0.640267 0.537434 0.67485
88 1 0.689672 0.545329 0.63079
51 2 0.540408 0.62131 0.834987
13 1 0.711079 0.450758 0.983407
15 2 0.666625 0.430279 0.938143
50 2 0.647876 0.632778 0.821922
49 1 0.589927 0.623178 0.790391
68 2 0.805853 0.722336 0.839229
67 1 0.766188 0.670565 0.825411
69 2 0.796575 0.613937 0.843143
40 1 0.8748 0.536594 0.685501
90 2 0.747477 0.552364 0.663247
ITEM: TIMESTEP
110000
ITEM: NUMBER OF ATOMS
99
ITEM: BOX BOUNDS pp pp pp
-5.0000000000000000e+00 1.0000000000000000e+01
-5.0000000000000000e+00 1.0000000000000000e+01
-5.0000000000000000e+00 1.0000000000000000e+01
ITEM: ATOMS id type xs ys zs
18 2 0.680141 0.428169 0.489066
60 2 0.879125 0.629964 0.220942
2 2 0.888933 0.539938 0.371191
58 1 0.863876 0.631436 0.285825
25 1 0.310493 0.44985 0.145447
27 2 0.366721 0.479515 0.16552
26 2 0.308746 0.387428 0.16879
81 2 0.490399 0.555045 0.249096
79 1 0.473762 0.545804 0.185204
80 2 0.51522 0.580512 0.146203
5 2 0.128945 0.457976 0.117964
4 1 0.115786 0.488898 0.0603868
6 2 0.172977 0.507102 0.0313643
31 1 0.701251 0.64474 0.363522
32 2 0.695099 0.682642 0.418019
33 2 0.765837 0.637488 0.348673
78 2 0.854784 0.501409 1.00153
77 2 0.818103 0.603326 -0.00937412
76 1 0.801936 0.541339 0.00908325
93 2 0.0242577 0.67961 0.0641436
28 1 0.505865 0.587364 0.36719
30 2 0.536253 0.643124 0.346897
92 2 0.0410711 0.576024 0.0931088
91 1 0.996661 0.625735 0.0920789
29 2 0.52532 0.572786 0.429266
59 2 0.900516 0.678111 0.316209
1 1 0.893682 0.508538 0.429808
47 2 0.595102 0.493271 0.0634317
48 2 0.686767 0.542512 0.0314242
46 1 0.620778 0.549308 0.0380339
12 2 0.333374 -0.0108275 0.736582
7 1 0.0766101 0.476857 0.483415
61 1 0.210626 0.0877733 0.687384
63 2 0.199129 0.153263 0.692224
62 2 0.158667 0.0541955 0.712226
99 2 0.171078 0.305748 0.625869
97 1 0.171239 0.272946 0.683907
98 2 0.196164 0.312294 0.731601
8 2 0.0140944 0.482582 0.460978
50 2 0.531904 0.562841 0.771307
16 1 0.726696 0.473173 0.473203
9 2 0.107822 0.428286 0.450082
35 2 0.0161014 0.479933 0.986743
34 1 0.961042 0.476351 0.949324
49 1 0.546066 0.523141 0.719657
65 2 0.121376 0.684749 0.943406
64 1 0.0773674 0.73428 0.950782
66 2 0.107048 0.786164 0.980304
96 2 0.369255 0.908586 0.866698
37 1 0.0787639 0.776623 0.676843
54 2 0.314033 0.510435 0.0472124
11 2 0.371574 0.0760411 0.789932
10 1 0.364968 0.00972302 0.791573
39 2 0.0333123 0.804781 0.716664
85 1 0.154087 0.604701 0.849841
38 2 0.129822 0.754502 0.713561
23 2 0.162075 0.880811 0.793582
87 2 0.108931 0.57488 0.810905
53 2 0.3244 0.591196 0.97495
52 1 0.287375 0.53881 0.993095
86 2 0.196406 0.559076 0.873754
22 1 0.13205 0.938236 0.809242
24 2 0.176695 0.98022 0.835484
74 2 0.290021 0.757184 0.753879
73 1 0.229972 0.761621 0.782495
75 2 0.219281 0.707683 0.82019
70 1 0.38365 0.691223 0.928008
94 1 0.364678 0.875727 0.924523
71 2 0.38218 0.756714 0.91563
72 2 0.442189 0.666182 0.908246
42 2 -0.00316657 0.680023 0.600443
45 2 0.0192346 0.89493 0.7923
43 1 0.961674 0.861982 0.799064
17 2 0.698739 0.522797 0.438558
3 2 0.832625 0.498271 0.454527
95 2 0.382159 0.916206 0.974526
36 2 0.977946 0.476607 0.884837
41 2 0.0110317 0.578225 0.564565
40 1 0.969833 0.619149 0.59731
20 2 0.945749 0.679667 0.908976
15 2 0.779122 0.653361 0.821734
89 2 0.672222 0.594637 0.576235
69 2 0.965851 0.582503 0.814009
83 2 0.614147 0.645704 0.816377
82 1 0.560043 0.641603 0.855112
88 1 0.610765 0.606622 0.553348
44 2 0.916282 0.902051 0.826965
84 2 0.57846 0.627305 0.917568
14 2 0.750954 0.612351 0.724904
13 1 0.729589 0.647247 0.777536
21 2 0.897842 0.738411 0.830837
19 1 0.890956 0.686065 0.871542
55 1 0.78541 0.568347 0.627103
57 2 0.762642 0.533797 0.574833
56 2 0.845994 0.592414 0.613148
51 2 0.606638 0.496575 0.728003
68 2 0.989406 0.556954 0.710839
67 1 1.00503 0.545627 0.77465
90 2 0.565927 0.582746 0.596521
ITEM: TIMESTEP
120000
ITEM: NUMBER OF ATOMS
99
ITEM: BOX BOUNDS pp pp pp
-5.0000000000000000e+00 1.0000000000000000e+01
-5.0000000000000000e+00 1.0000000000000000e+01
-5.0000000000000000e+00 1.0000000000000000e+01
ITEM: ATOMS id type xs ys zs
4 1 0.219889 0.60073 0.95339
12 2 0.249223 0.130792 0.804357
17 2 0.748138 0.424276 0.454995
25 1 0.327086 0.619131 0.107977
27 2 0.357871 0.570573 0.0742314
26 2 0.367145 0.641385 0.156398
6 2 0.260771 0.64756 0.929307
92 2 0.0141108 0.712904 0.237875
29 2 0.448049 0.699203 0.277883
39 2 0.0789313 0.630462 0.468571
28 1 0.454482 0.666569 0.220107
69 2 0.0197625 0.582294 0.0215219
67 1 0.00489086 0.642509 0.045965
93 2 0.977063 0.653012 0.154856
81 2 0.506459 0.482522 0.0218201
91 1 0.972344 0.663952 0.22045
89 2 0.676551 0.574042 0.415561
88 1 0.620542 0.608615 0.404973
90 2 0.58425 0.609793 0.460883
30 2 0.518356 0.649741 0.211083
31 1 0.637488 0.63785 0.228813
32 2 0.626614 0.628622 0.293936
33 2 0.700436 0.621423 0.214249
35 2 0.865099 0.632794 0.191773
34 1 0.804268 0.627503 0.165013
36 2 0.809408 0.605324 0.102355
47 2 0.606851 0.596373 0.0924008
3 2 0.808731 0.578751 0.50871
60 2 0.836724 0.703135 0.300932
2 2 0.828608 0.672002 0.456168
58 1 0.796772 0.716076 0.352709
59 2 0.734233 0.724105 0.331058
1 1 0.84671 0.633528 0.507514
46 1 0.619405 0.564843 0.0350192
48 2 0.68139 0.54033 0.0362334
16 1 0.751568 0.480253 0.491039
79 1 0.446684 0.507896 0.00673667
63 2 0.00255585 0.115442 0.881655
52 1 0.0575007 0.505153 0.913037
53 2 0.0604181 0.492325 0.847681
61 1 0.0687798 0.122849 0.879667
62 2 0.0866333 0.173743 0.918853
97 1 0.130053 0.294045 0.96011
98 2 0.184396 0.304184 0.922848
11 2 0.163998 0.0817095 0.851037
99 2 0.103414 0.352779 0.976998
80 2 0.451098 0.543141 0.950321
5 2 0.236816 0.586686 0.0163243
72 2 0.351899 0.797593 0.969209
70 1 0.359953 0.731603 0.974189
71 2 0.355709 0.713467 0.0382014
42 2 0.0865751 0.437097 0.678672
40 1 0.0368407 0.470886 0.707469
74 2 0.329826 0.604142 0.704328
54 2 0.113466 0.535918 0.932163
10 1 0.224003 0.0721588 0.823605
66 2 0.0461216 0.708485 0.819533
65 2 0.057589 0.794966 0.884658
64 1 0.0331751 0.733096 0.880123
85 1 0.460444 0.613328 0.867244
23 2 0.276349 0.988318 0.859585
87 2 0.52079 0.639811 0.857177
86 2 0.422697 0.656382 0.901391
22 1 0.314609 0.937306 0.879038
24 2 0.378164 0.95717 0.882282
73 1 0.387993 0.571579 0.703522
75 2 0.416955 0.576339 0.76338
45 2 0.0429119 0.587533 0.720179
51 2 0.469021 0.597603 0.615665
43 1 0.0344301 0.653123 0.711786
44 2 0.0456474 0.669 0.648017
37 1 0.0434028 0.633723 0.524887
68 2 1.00744 0.687634 0.996959
38 2 0.97933 0.644741 0.510132
41 2 0.98081 0.462123 0.672423
55 1 0.666547 0.4478 0.644128
9 2 0.828121 0.418382 0.666698
7 1 0.875694 0.41986 0.620018
56 2 0.66084 0.510056 0.667281
18 2 0.726762 0.469051 0.551896
57 2 0.610531 0.414053 0.657081
8 2 0.849267 0.439245 0.561964
96 2 0.723563 0.691592 0.881211
94 1 0.663306 0.664417 0.872544
49 1 0.524056 0.615677 0.582667
84 2 0.676946 0.627516 0.768707
78 2 0.871676 0.530588 -0.0170907
76 1 0.820196 0.570911 -0.00411876
77 2 0.814692 0.616247 0.947313
95 2 0.639123 0.644733 0.931468
50 2 0.571993 0.631301 0.626284
20 2 0.851736 0.651842 0.624698
15 2 0.909139 0.7158 0.888405
83 2 0.742215 0.623633 0.681664
82 1 0.678905 0.621011 0.702388
14 2 0.849456 0.670805 0.809253
13 1 0.848934 0.692026 0.87245
21 2 0.923989 0.650407 0.706117
19 1 0.859078 0.649824 0.690928
ITEM: TIMESTEP
130000
ITEM: NUMBER OF ATOMS
99
ITEM: BOX BOUNDS pp pp pp
-5.0000000000000000e+00 1.0000000000000000e+01
-5.0000000000000000e+00 1.0000000000000000e+01
-5.0000000000000000e+00 1.0000000000000000e+01
ITEM: ATOMS id type xs ys zs
27 2 0.345316 0.593098 0.226655
16 1 0.793379 0.456529 0.417759
17 2 0.822007 0.41938 0.465138
18 2 0.831253 0.510016 0.405545
92 2 0.889723 0.462505 0.174358
25 1 0.390804 0.58903 0.178088
26 2 0.451795 0.586712 0.204904
58 1 0.00840585 0.625067 0.51491
60 2 0.0695289 0.614543 0.539358
72 2 0.575281 0.439378 0.854503
90 2 0.690899 0.514631 0.393718
98 2 0.945787 0.524723 0.0506299
30 2 0.606863 0.555639 0.283869
28 1 0.59776 0.590903 0.228029
29 2 0.652148 0.586333 0.189747
31 1 0.745154 0.697168 0.31573
32 2 0.701674 0.658272 0.347995
33 2 0.732698 0.694884 0.250277
91 1 0.924397 0.518794 0.16577
93 2 0.924185 0.55389 0.22245
95 2 0.780106 0.581272 0.0820954
89 2 0.645688 0.571097 0.475077
88 1 0.644353 0.559707 0.409404
35 2 0.864013 0.661784 0.320723
34 1 0.913334 0.618509 0.332517
36 2 0.936787 0.627823 0.394223
96 2 0.690006 0.640378 0.0666031
94 1 0.724776 0.604745 0.11094
21 2 0.731141 0.765118 0.428101
19 1 0.734236 0.770866 0.494447
80 2 0.263488 0.407805 0.706759
6 2 0.110399 0.418021 0.862075
62 2 0.0368733 0.27384 0.799657
79 1 0.20272 0.403597 0.679667
4 1 0.0786284 0.38378 0.814507
5 2 0.113985 0.386158 0.758038
47 2 0.351723 0.509917 0.764339
46 1 0.36092 0.443999 0.760515
48 2 0.410333 0.426042 0.801508
61 1 0.0167059 0.212019 0.814352
54 2 0.920608 0.487232 0.866805
11 2 0.00764082 0.101494 0.711988
12 2 0.0814743 0.0405722 0.660135
63 2 0.00661513 0.206966 0.880056
10 1 0.0195598 0.041791 0.684823
52 1 0.917493 0.457254 0.80734
53 2 0.971531 0.419158 0.798803
56 2 0.84205 0.507541 0.730839
55 1 0.82159 0.532361 0.672445
23 2 0.352871 0.568833 0.049566
59 2 0.968068 0.645421 0.563931
22 1 0.344207 0.54336 0.98857
81 2 0.206358 0.370361 0.62199
99 2 0.0322648 0.503656 0.987945
67 1 0.147637 0.493757 0.944782
68 2 0.212733 0.497754 0.958603
24 2 0.361146 0.478882 0.988804
70 1 0.517691 0.47087 0.866171
41 2 0.18341 0.623857 0.796617
40 1 0.119029 0.607072 0.792393
42 2 0.108779 0.572195 0.736509
74 2 0.439115 0.769653 0.840527
73 1 0.39952 0.769363 0.786893
75 2 0.39796 0.830387 0.760095
45 2 0.318146 0.601771 0.890247
43 1 0.298462 0.6231 0.83023
44 2 0.33179 0.678609 0.814342
69 2 0.12994 0.545091 0.906103
85 1 0.498828 0.797325 0.92201
87 2 0.493495 0.836506 0.975684
65 2 0.955392 0.850561 0.680134
37 1 0.908286 0.683373 0.644276
2 2 0.806814 0.825924 0.566739
97 1 0.967089 0.517674 0.987853
66 2 0.00677737 0.941885 0.709648
51 2 0.522973 0.585049 0.754133
50 2 0.509735 0.690891 0.732364
71 2 0.529206 0.525431 0.902708
20 2 0.704722 0.718195 0.522715
64 1 0.991486 0.879657 0.728041
78 2 0.862257 0.576606 0.957947
8 2 0.62031 0.653298 0.85501